<LesHouchesEvents>
<!--
File generated with PYTHIA 6.424
-->
<header>
<MGVersion>
# MG/ME version    : 4.0.0
</MGVersion>
<MGProcCard>
# Begin PROCESS # This is TAG. Do not modify this line
pp>T1    @0       # First Process
# End PROCESS  # This is TAG. Do not modify this line
</MGProcCard>
<MGGenerationInfo>
#  Number of Events        :      6000
</MGGenerationInfo>
<slha>
DECAY   1000022   0.0E+00
</slha>
</header>
<init>
    2212    2212  3.500000E+03  3.500000E+03     0     0 10042 10042     3    84
  1.000000E+00  1.000000E+00  1.000000E+00   201
  1.000000E+00  1.000000E+00  1.000000E+00   202
  1.000000E+00  1.000000E+00  1.000000E+00   204
  1.000000E+00  1.000000E+00  1.000000E+00   205
  1.000000E+00  1.000000E+00  1.000000E+00   207
  1.000000E+00  1.000000E+00  1.000000E+00   208
  1.000000E+00  1.000000E+00  1.000000E+00   209
  1.000000E+00  1.000000E+00  1.000000E+00   210
  1.000000E+00  1.000000E+00  1.000000E+00   211
  1.000000E+00  1.000000E+00  1.000000E+00   212
  1.000000E+00  1.000000E+00  1.000000E+00   213
  1.000000E+00  1.000000E+00  1.000000E+00   214
  1.000000E+00  1.000000E+00  1.000000E+00   216
  1.000000E+00  1.000000E+00  1.000000E+00   217
  1.000000E+00  1.000000E+00  1.000000E+00   218
  1.000000E+00  1.000000E+00  1.000000E+00   219
  1.000000E+00  1.000000E+00  1.000000E+00   220
  1.000000E+00  1.000000E+00  1.000000E+00   221
  1.000000E+00  1.000000E+00  1.000000E+00   222
  1.000000E+00  1.000000E+00  1.000000E+00   223
  1.000000E+00  1.000000E+00  1.000000E+00   224
  1.000000E+00  1.000000E+00  1.000000E+00   225
  1.000000E+00  1.000000E+00  1.000000E+00   226
  1.000000E+00  1.000000E+00  1.000000E+00   227
  1.000000E+00  1.000000E+00  1.000000E+00   228
  1.000000E+00  1.000000E+00  1.000000E+00   229
  1.000000E+00  1.000000E+00  1.000000E+00   230
  1.000000E+00  1.000000E+00  1.000000E+00   231
  1.000000E+00  1.000000E+00  1.000000E+00   232
  1.000000E+00  1.000000E+00  1.000000E+00   233
  1.000000E+00  1.000000E+00  1.000000E+00   234
  1.000000E+00  1.000000E+00  1.000000E+00   235
  1.000000E+00  1.000000E+00  1.000000E+00   236
  1.000000E+00  1.000000E+00  1.000000E+00   237
  1.000000E+00  1.000000E+00  1.000000E+00   238
  1.000000E+00  1.000000E+00  1.000000E+00   239
  1.000000E+00  1.000000E+00  1.000000E+00   240
  1.000000E+00  1.000000E+00  1.000000E+00   241
  1.000000E+00  1.000000E+00  1.000000E+00   242
  1.000000E+00  1.000000E+00  1.000000E+00   243
  1.000000E+00  1.000000E+00  1.000000E+00   244
  1.000000E+00  1.000000E+00  1.000000E+00   246
  1.000000E+00  1.000000E+00  1.000000E+00   247
  1.000000E+00  1.000000E+00  1.000000E+00   248
  1.000000E+00  1.000000E+00  1.000000E+00   249
  1.000000E+00  1.000000E+00  1.000000E+00   250
  1.000000E+00  1.000000E+00  1.000000E+00   251
  1.000000E+00  1.000000E+00  1.000000E+00   252
  1.000000E+00  1.000000E+00  1.000000E+00   253
  1.000000E+00  1.000000E+00  1.000000E+00   254
  1.000000E+00  1.000000E+00  1.000000E+00   256
  1.000000E+00  1.000000E+00  1.000000E+00   258
  1.000000E+00  1.000000E+00  1.000000E+00   259
  1.000000E+00  1.000000E+00  1.000000E+00   261
  1.000000E+00  1.000000E+00  1.000000E+00   262
  1.000000E+00  1.000000E+00  1.000000E+00   263
  1.000000E+00  1.000000E+00  1.000000E+00   264
  1.000000E+00  1.000000E+00  1.000000E+00   265
  1.000000E+00  1.000000E+00  1.000000E+00   271
  1.000000E+00  1.000000E+00  1.000000E+00   272
  1.000000E+00  1.000000E+00  1.000000E+00   273
  1.000000E+00  1.000000E+00  1.000000E+00   274
  1.000000E+00  1.000000E+00  1.000000E+00   275
  1.000000E+00  1.000000E+00  1.000000E+00   276
  1.000000E+00  1.000000E+00  1.000000E+00   277
  1.000000E+00  1.000000E+00  1.000000E+00   278
  1.000000E+00  1.000000E+00  1.000000E+00   279
  1.000000E+00  1.000000E+00  1.000000E+00   280
  1.000000E+00  1.000000E+00  1.000000E+00   281
  1.000000E+00  1.000000E+00  1.000000E+00   282
  1.000000E+00  1.000000E+00  1.000000E+00   283
  1.000000E+00  1.000000E+00  1.000000E+00   284
  1.000000E+00  1.000000E+00  1.000000E+00   285
  1.000000E+00  1.000000E+00  1.000000E+00   286
  1.000000E+00  1.000000E+00  1.000000E+00   287
  1.000000E+00  1.000000E+00  1.000000E+00   288
  1.000000E+00  1.000000E+00  1.000000E+00   289
  1.000000E+00  1.000000E+00  1.000000E+00   290
  1.000000E+00  1.000000E+00  1.000000E+00   291
  1.000000E+00  1.000000E+00  1.000000E+00   292
  1.000000E+00  1.000000E+00  1.000000E+00   293
  1.000000E+00  1.000000E+00  1.000000E+00   294
  1.000000E+00  1.000000E+00  1.000000E+00   295
  1.000000E+00  1.000000E+00  1.000000E+00   296
</init>
<event>
    10   243  1.000000E+00  5.258178E+02  7.918789E-03  1.000042E-01
      -1   -1    0    0    0  101  0.0000000000E+00  0.0000000000E+00  6.9058140775E+02  6.9058140775E+02  0.0000000000E+00 0. 9.
       1   -1    0    0  102    0  0.0000000000E+00  0.0000000000E+00 -4.0051136945E+02  4.0051136945E+02  0.0000000000E+00 0. 9.
 1000021    2    1    2  103  101 -8.3692934041E+01  2.0984111981E+02  1.5552969773E+02  5.4851455951E+02  4.7501677059E+02 0. 9.
 1000021    2    1    2  102  103  8.3692934041E+01 -2.0984111981E+02  1.3454034056E+02  5.4257821769E+02  4.7460743388E+02 0. 9.
 1000022    1    3    0    0    0 -1.1877907389E+01  1.6264342082E+02  2.1626671842E+02  4.2307240576E+02  3.2500000000E+02 0. 9.
      -1    1    3    0    0  101 -5.8149960567E+01  6.1884362538E+01 -3.2769184047E+01  9.1022088329E+01  3.3000000000E-01 0. 9.
       1    1    3    0  103    0 -1.3665066085E+01 -1.4686663543E+01 -2.7967836643E+01  3.4420065422E+01  3.3000000000E-01 0. 9.
 1000022    1    4    0    0    0  2.0554639914E+01 -1.3904433517E+02  1.9936883486E+02  4.0636037292E+02  3.2500000000E+02 0. 9.
      -1    1    4    0    0  103  5.1159808537E+01 -7.9154801245E+01 -3.0748440029E+01  9.9138206731E+01  3.3000000000E-01 0. 9.
       1    1    4    0  102    0  1.1978485590E+01  8.3580165992E+00 -3.4080054265E+01  3.7079638040E+01  3.3000000000E-01 0. 9.
# model T1_0.0_475.0_325.0
</event>
<event>
    10   244  1.000000E+00  5.647824E+02  7.925248E-03  9.913939E-02
      21   -1    0    0  101  102  0.0000000000E+00  0.0000000000E+00  1.0106757425E+03  1.0106757425E+03  0.0000000000E+00 0. 9.
      21   -1    0    0  103  101  0.0000000000E+00  0.0000000000E+00 -3.8235845553E+02  3.8235845553E+02  0.0000000000E+00 0. 9.
 1000021    2    1    2  104  102 -1.2312120791E+01  3.0505148992E+02  6.0525828099E+02  8.2796186454E+02  4.7536855451E+02 0. 9.
 1000021    2    1    2  103  104  1.2312120791E+01 -3.0505148992E+02  2.3059005936E+01  5.6507233344E+02  4.7493896918E+02 0. 9.
 1000022    1    3    0    0    0 -7.3032653911E+00  3.6597724722E+02  5.1460159939E+02  7.1023410877E+02  3.2500000000E+02 0. 9.
      -2    1    3    0    0  102  7.0915518782E-01 -4.9447325296E+01  3.4934594071E+01  6.0548126668E+01  3.3000000000E-01 0. 9.
       2    1    3    0  104    0 -5.7180105875E+00 -1.1478432002E+01  5.5722087530E+01  5.7179629109E+01  3.3000000000E-01 0. 9.
 1000022    1    4    0    0    0 -3.6563273264E+01 -1.5226234968E+02 -4.6116799980E+01  3.6369280351E+02  3.2500000000E+02 0. 9.
      -1    1    4    0    0  104  7.1562125253E+01 -9.1738461089E+01  1.6295789068E+01  1.1748508269E+02  3.3000000000E-01 0. 9.
       1    1    4    0  103    0 -2.2686731199E+01 -6.1050679149E+01  5.2880016848E+01  8.3894447247E+01  3.3000000000E-01 0. 9.
# model T1_0.0_475.0_325.0
</event>
<event>
    10   243  1.000000E+00  4.743018E+02  7.909492E-03  1.012785E-01
      -1   -1    0    0    0  101  0.0000000000E+00  0.0000000000E+00  5.4737416801E+02  5.4737416801E+02  0.0000000000E+00 0. 9.
       1   -1    0    0  102    0  0.0000000000E+00  0.0000000000E+00 -4.1254890931E+02  4.1254890931E+02  0.0000000000E+00 0. 9.
 1000021    2    1    2  103  101 -4.8440478149E+00 -1.7312019266E+01  3.7789724878E+01  4.7537252855E+02  4.7352698633E+02 0. 9.
 1000021    2    1    2  102  103  4.8440478149E+00  1.7312019266E+01  9.7035533816E+01  4.8455054877E+02  4.7439452851E+02 0. 9.
 1000022    1    3    0    0    0 -1.1672772116E+01 -1.8685789651E+01  6.1182566003E+01  3.3144187835E+02  3.2500000000E+02 0. 9.
      -1    1    3    0    0  101  5.6519959153E+01 -4.2882168717E+01  5.9695169460E+00  7.1197824469E+01  3.3000000000E-01 0. 9.
       1    1    3    0  103    0 -4.9691234853E+01  4.4255939103E+01 -2.9362358072E+01  7.2732825729E+01  3.3000000000E-01 0. 9.
 1000022    1    4    0    0    0 -8.7329860809E+01  7.1451919411E+00  1.7667307707E+00  3.3660909033E+02  3.2500000000E+02 0. 9.
      -2    1    4    0    0  103  1.5478700746E+01 -1.2862383751E+01 -3.8742293256E+00  2.0497552181E+01  3.3000000000E-01 0. 9.
       2    1    4    0  102    0  7.6695207878E+01  2.3029211076E+01  9.9143032371E+01  1.2744390626E+02  3.3000000000E-01 0. 9.
# model T1_0.0_475.0_325.0
</event>
<event>
    10   244  1.000000E+00  4.845217E+02  7.911412E-03  1.010123E-01
      21   -1    0    0  101  102  0.0000000000E+00  0.0000000000E+00  6.7189560294E+02  6.7189560294E+02  0.0000000000E+00 0. 9.
      21   -1    0    0  103  104  0.0000000000E+00  0.0000000000E+00 -3.4976866082E+02  3.4976866082E+02  0.0000000000E+00 0. 9.
 1000021    2    1    2  101  104  2.3583729412E+00 -1.3749356671E+02  1.3909757141E+02  4.9547872428E+02  4.5523728871E+02 0. 9.
 1000021    2    1    2  103  102 -2.3583729412E+00  1.3749356671E+02  1.8302937070E+02  5.2618553948E+02  4.7377360480E+02 0. 9.
 1000022    1    3    0    0    0  7.5979492597E+01 -1.7595984610E+02  1.3008528147E+02  3.9910140465E+02  3.2500000000E+02 0. 9.
      -2    1    3    0    0  104 -7.0775305883E+01  3.4992614733E+01 -7.4553352872E+00  7.9305220086E+01  3.3000000000E-01 0. 9.
       2    1    3    0  101    0 -2.8458137725E+00  3.4736646582E+00  1.6467625236E+01  1.7072099552E+01  3.3000000000E-01 0. 9.
 1000022    1    4    0    0    0 -2.6997248086E+01  1.1151306620E+02  6.1183118012E+01  3.5004626732E+02  3.2500000000E+02 0. 9.
      -1    1    4    0    0  102  1.8529569426E+01 -4.7431806096E+01  3.2808244938E+01  6.0577314306E+01  3.3000000000E-01 0. 9.
       1    1    4    0  103    0  6.1093057195E+00  7.3412306605E+01  8.9038007750E+01  1.1556195785E+02  3.3000000000E-01 0. 9.
# model T1_0.0_475.0_325.0
</event>
<event>
    10   243  1.000000E+00  4.908750E+02  7.912586E-03  1.008504E-01
      -2   -1    0    0    0  101  0.0000000000E+00  0.0000000000E+00  2.0064814138E+02  2.0064814138E+02  0.0000000000E+00 0. 9.
       2   -1    0    0  102    0  0.0000000000E+00  0.0000000000E+00 -1.2061182317E+03  1.2061182317E+03  0.0000000000E+00 0. 9.
 1000021    2    1    2  103  101  4.7727273606E+01 -1.2458419040E+02 -4.5617439399E+02  6.6990497709E+02  4.7210008204E+02 0. 9.
 1000021    2    1    2  102  103 -4.7727273606E+01  1.2458419040E+02 -5.4929569631E+02  7.3686139597E+02  4.7269423706E+02 0. 9.
 1000022    1    3    0    0    0 -3.9990455207E+01 -1.5784060605E+02 -4.0948080726E+02  5.4755129891E+02  3.2500000000E+02 0. 9.
      -2    1    3    0    0  101 -7.9089737631E+00  1.3573974074E+00 -1.4420644212E+01  1.6506310103E+01  3.3000000000E-01 0. 9.
       2    1    3    0  103    0  9.5626702576E+01  3.1899018242E+01 -3.2272942515E+01  1.0584736808E+02  3.3000000000E-01 0. 9.
 1000022    1    4    0    0    0 -5.9950968387E+01  3.9976701282E+01 -3.9824265137E+02  5.1905150479E+02  3.2500000000E+02 0. 9.
      -2    1    4    0    0  103  4.9871766804E+01  1.7285362170E+01 -5.4841861330E+00  5.3067523656E+01  3.3000000000E-01 0. 9.
       2    1    4    0  102    0 -3.7648072022E+01  6.7322126945E+01 -1.4556885881E+02  1.6474236752E+02  3.3000000000E-01 0. 9.
# model T1_0.0_475.0_325.0
</event>
<event>
    10   244  1.000000E+00  4.833952E+02  7.911203E-03  1.010413E-01
      21   -1    0    0  101  102  0.0000000000E+00  0.0000000000E+00  1.1889739676E+03  1.1889739676E+03  0.0000000000E+00 0. 9.
      21   -1    0    0  102  103  0.0000000000E+00  0.0000000000E+00 -6.3030242626E+02  6.3030242626E+02  0.0000000000E+00 0. 9.
 1000021    2    1    2  104  103  7.4818102036E+01 -5.5329349143E+01 -4.7546466505E+02  6.7729905205E+02  4.7329512244E+02 0. 9.
 1000021    2    1    2  101  104 -7.4818102036E+01  5.5329349143E+01  1.0341362064E+03  1.1419773418E+03  4.7541084399E+02 0. 9.
 1000022    1    3    0    0    0 -6.0882088689E+01 -2.5619239995E+01 -3.2608039884E+02  4.6509826993E+02  3.2500000000E+02 0. 9.
      -2    1    3    0    0  103  4.8073188357E+01  4.0502984247E+00 -1.9757037106E+01  5.2133346060E+01  3.3000000000E-01 0. 9.
       2    1    3    0  104    0  8.7627002368E+01 -3.3760407573E+01 -1.2962722910E+02  1.6006743606E+02  3.3000000000E-01 0. 9.
 1000022    1    4    0    0    0 -1.4001652037E+02 -1.9921197023E+00  8.7096054958E+02  9.4010950077E+02  3.2500000000E+02 0. 9.
      -1    1    4    0    0  104 -1.7477433125E+01  2.3141987412E+01  4.7163578058E+01  5.5367176605E+01  3.3000000000E-01 0. 9.
       1    1    4    0  101    0  8.2675851456E+01  3.4179481433E+01  1.1601207877E+02  1.4650066445E+02  3.3000000000E-01 0. 9.
# model T1_0.0_475.0_325.0
</event>
<event>
    10   243  1.000000E+00  5.012535E+02  7.914473E-03  1.005914E-01
       1   -1    0    0  101    0  0.0000000000E+00  0.0000000000E+00  7.3428915199E+02  7.3428915199E+02  0.0000000000E+00 0. 9.
      -1   -1    0    0    0  102  0.0000000000E+00  0.0000000000E+00 -3.4936657350E+02  3.4936657350E+02  0.0000000000E+00 0. 9.
 1000021    2    1    2  101  103  8.2101689589E+01 -1.3704728978E+02  2.7029497142E+02  5.6970314431E+02  4.7537317340E+02 0. 9.
 1000021    2    1    2  103  102 -8.2101689589E+01  1.3704728978E+02  1.1462760707E+02  5.1395258118E+02  4.7485273541E+02 0. 9.
 1000022    1    3    0    0    0  1.1848981538E+02 -5.0297722925E+01  2.1906563679E+02  4.1253418101E+02  3.2500000000E+02 0. 9.
      -1    1    3    0    0  103 -5.0890981724E+01  6.1231179525E+00  3.4250764984E+01  6.1649074577E+01  3.3000000000E-01 0. 9.
       1    1    3    0  101    0  1.4502855932E+01 -9.2872684811E+01  1.6978569647E+01  9.5519888722E+01  3.3000000000E-01 0. 9.
 1000022    1    4    0    0    0  2.6039762214E+01  1.5676926511E+02  9.0887175845E+01  3.7301494666E+02  3.2500000000E+02 0. 9.
      -1    1    4    0    0  102 -1.0755727687E+02 -4.1605218389E+00  4.3224565007E+01  1.1599288629E+02  3.3000000000E-01 0. 9.
       1    1    4    0  103    0 -5.8417493450E-01 -1.5561453485E+01 -1.9484133785E+01  2.4944748230E+01  3.3000000000E-01 0. 9.
# model T1_0.0_475.0_325.0
</event>
